User input:
--------------------------------------------------------------
$molecule
-1 1
Cl 0.000000 0.000000 0.000000
$end

$rem
JOBTYPE SP
EXCHANGE HF
CORRELATION MP2
BASIS 6-311G**
$end
--------------------------------------------------------------

             Standard Nuclear Orientation (Angstroms)
    I     Atom           X                Y                Z
 ----------------------------------------------------------------
    1      Cl      0.0000000000     0.0000000000     0.0000000000
 ----------------------------------------------------------------

    8    -459.5640469652      5.64E-06 Convergence criterion met
 Total energy in the final basis set = -459.5640469652
        MP2         total energy =      -459.7488388310 au

                    Orbital Energies (a.u.)
 --------------------------------------------------------------

 Alpha MOs
 -- Occupied --
******* -10.219  -7.686  -7.686  -7.686  -0.726  -0.144  -0.144
 -0.144

          Ground-State Mulliken Net Atomic Charges

     Atom                 Charge (a.u.)
  ----------------------------------------
      1 Cl                   -1.000000
  ----------------------------------------
  Sum of atomic charges =    -1.000000

                    Cartesian Multipole Moments
 -----------------------------------------------------------------
    Charge (ESU x 10^10)
                -4.8032
    Dipole Moment (Debye)
         X       0.0000      Y       0.0000      Z       0.0000
       Tot       0.0000
    Quadrupole Moments (Debye-Ang)
        XX     -16.7468     XY       0.0000     YY     -16.7468
        XZ       0.0000     YZ       0.0000     ZZ     -16.7468

 STANDARD THERMODYNAMIC QUANTITIES AT   298.15 K  AND     1.00 ATM

   Translational Enthalpy:        0.889 kcal/mol
   Rotational Enthalpy:           0.000 kcal/mol
   Vibrational Enthalpy:          0.000 kcal/mol
   gas constant (RT):             0.592 kcal/mol
   Translational Entropy:        36.586  cal/mol.K
   Rotational Entropy:            0.000  cal/mol.K
   Vibrational Entropy:           0.000  cal/mol.K

   Total Enthalpy:                1.481 kcal/mol
   Total Entropy:                36.586  cal/mol.K

 Total job time:  0.21s(wall), 0.20s(cpu)
        *  Thank you very much for using Q-Chem.  Have a nice day.  *
