User input:
--------------------------------------------------------------
$molecule
-1 1
F 0.000000 0.000000 -2.537929
C 0.000000 0.000000 -0.488372
H 1.062087 0.000000 -0.614972
H -0.531044 0.919794 -0.614972
H -0.531044 -0.919794 -0.614972
Cl 0.000000 0.000000 1.624501
$end

$rem
JOBTYPE OPT
EXCHANGE HF
CORRELATION MP2
BASIS 6-311G**
$end

$opt
CONSTRAINT
stre 1 2 2.09
ENDCONSTRAINT
$end
--------------------------------------------------------------

   15    -598.5735958834      2.31E-09 Convergence criterion met
 Total energy in the final basis set = -598.5735958834
        MP2         total energy =      -599.1671557039 au
   10    -598.5734837006      6.10E-09 Convergence criterion met
 Total energy in the final basis set = -598.5734837006
        MP2         total energy =      -599.1663436360 au
   10    -598.5732663247      3.15E-09 Convergence criterion met
 Total energy in the final basis set = -598.5732663247
        MP2         total energy =      -599.1664052532 au
   10    -598.5728630077      4.99E-09 Convergence criterion met
 Total energy in the final basis set = -598.5728630077
        MP2         total energy =      -599.1664881107 au
   10    -598.5722169073      8.94E-09 Convergence criterion met
 Total energy in the final basis set = -598.5722169073
        MP2         total energy =      -599.1665898039 au
 **  OPTIMIZATION CONVERGED  **
 Total job time:  71.74s(wall), 71.50s(cpu)
        *  Thank you very much for using Q-Chem.  Have a nice day.  *

User input: 2 of 2

                  Welcome to Q-Chem
     A Quantum Leap Into The Future Of Chemistry

 Y. Shao, L. Fusti-Molnar, Y. Jung, J. Kussmann, C. Ochsenfeld, S. T. Brown,
 A. T. B. Gilbert, L. V. Slipchenko, S. V. Levchenko, D. P. O'Neill,
 R. A. DiStasio Jr., R. C. Lochan, T. Wang, G. J. O. Beran, N. A. Besley,
 J. M. Herbert, C. Y. Lin, T. Van Voorhis, S. H. Chien, A. Sodt, R. P. Steele,
 V. A. Rassolov, P. E. Maslen, P. P. Korambath, R. D. Adamson, B. Austin,
 J. Baker, E. F. C. Byrd, H. Dachsel, R. J. Doerksen, A. Dreuw, B. D. Dunietz,
 A. D. Dutoi, T. R. Furlani, S. R. Gwaltney, A. Heyden, S. Hirata, C.-P. Hsu,
 G. Kedziora, R. Z. Khaliullin, P. Klunzinger, A. M. Lee, M. S. Lee, W. Liang,
 I. Lotan, N. Nair, B. Peters, E. I. Proynov, P. A. Pieniazek, Y. M. Rhee,
 J. Ritchie, E. Rosta, C. D. Sherrill, A. C. Simmonett, J. E. Subotnik,
 H. L. Woodcock III, W. Zhang, A. T. Bell, A. K. Chakraborty, D. M. Chipman,
 F. J. Keil, A. Warshel, W. J. Hehre, H. F. Schaefer III, J. Kong,
 A. I. Krylov, P. M. W. Gill, M. Head-Gordon

 Additional authors for Version 3.1:
 Z. Gan, Y. Zhao, N. E. Schultz, D. Truhlar, E. Epifanovsky, M. Oana

 Additional authors for Version 3.2:
 R. Baer, B. R. Brooks, D. Casanova, J.-D. Chai, C.-L. Cheng, C. Cramer,
 D. Crittenden, A. Ghysels, G. Hawkins, E. G. Hohenstein, C. Kelley,
 W. Kurlancheek, D. Liotard, E. Livshits, P. Manohar, A. Marenich,
 D. Neuhauser, R. Olson, M. A. Rohrdanz, K. S. Thanthiriwatte, A. J. W. Thom,
 V. Vanovschi, C. F. Williams, Q. Wu, Z.-Q. You

 Additional authors for Version 4.0:
 A. Aspuru-Guzik, Y. Bernard, C. Chang, J. Deng, A. Dreuw, M. Diedenhofen,
 R. G. Edgar, D. Ghosh, W. A. Goddard III, M. Goldey, L. D. Jacobson,
 M. Gordon, B. Kaduk, I. Kaliman, K. Khistyaev, R. King, A. Klamt,
 D. Kosenkov, T. Kus, D. Lambrecht, A. Landau, A. W. Lange, K. Lawler, F. Liu,
 J. Liu, R. Olivares-Amaya, S. P. Mao, J. Parkhill, N. Russ, M. Schmidt,
 N. Shenvi, D. Small, Y. C. Su, E. Sundstrom, L. Vogt, O. Vydrov, M. Watson,
 M. Wormit, X. Xu, S. Yeganeh, I. Y. Zhang, D. Zuev

 Additional authors for Version 4.1:
 X. Feng, M. W. D. Hanson-Heine, P. Horn, H. Ji, A. Laurent, R. Peverati,
 N. Mardirossian, N. Sergueev, S. Sharada, P. Zimmerman

 Q-Chem, Version 4.1, Q-Chem, Inc., Pittsburgh, PA (2013).

 Parts of Q-Chem use Armadillo 4.100.2 (Dirt Cruiser).
 http://arma.sourceforge.net/

 MAC (Intel) OSX Version 4.1.2

 Q-chem begins on Wed May  7 14:20:11 2014

Deborahs-MacBook-Air.local
Host: 0

     Scratch files written to /tmp/qchem30853//
 Apr1114 |Users|Deb|Programs|trunk|libmdc|qstr_info.C -1

 Q-Chem warning in module /Users/Deb/Programs/trunk/libgen/rem.C, line 2629:

 !!Desired Analytical derivatives not available.

 2-order derivative to be evaluated numerically with 1-order analytical derivatives
Finally everything over in PARseQInput

--------------------------------------------------------------
User input:
--------------------------------------------------------------
$molecule
read
$end

$rem
JOBTYPE FREQ
EXCHANGE HF
CORRELATION MP2
BASIS 6-311G**
SCF_GUESS READ
$end
--------------------------------------------------------------

    8    -598.5714139183      4.05E-09 Convergence criterion met
 Total energy in the final basis set = -598.5714139183
        MP2         total energy =      -599.1667893486 au
    6    -598.5714139183      9.38E-09 Convergence criterion met
 Total energy in the final basis set = -598.5714139183
        MP2         total energy =      -599.1667893486 au
    6    -598.5714139183      6.61E-09 Convergence criterion met
 Total energy in the final basis set = -598.5714139183
        MP2         total energy =      -599.1667893482 au
    8    -598.5713950400      3.97E-09 Convergence criterion met
 Total energy in the final basis set = -598.5713950400
        MP2         total energy =      -599.1667891436 au
    8    -598.5714325703      5.68E-09 Convergence criterion met
 Total energy in the final basis set = -598.5714325703
        MP2         total energy =      -599.1667893316 au

                    Orbital Energies (a.u.)
 --------------------------------------------------------------

 Alpha MOs
 -- Occupied --
******* -25.843 -11.126 -10.342  -7.810  -7.808  -7.808  -1.122
 -0.893  -0.737  -0.441  -0.441  -0.318  -0.255  -0.255  -0.223
 -0.223  -0.196

          Ground-State Mulliken Net Atomic Charges

     Atom                 Charge (a.u.)
  ----------------------------------------
      1 F                    -0.756705
      2 C                    -0.156642
      3 H                     0.137319
      4 H                     0.137319
      5 H                     0.137319
      6 Cl                   -0.498609
  ----------------------------------------
  Sum of atomic charges =    -1.000000

                    Cartesian Multipole Moments
 -----------------------------------------------------------------
    Charge (ESU x 10^10)
                -4.8032
    Dipole Moment (Debye)
         X      -0.0000      Y       0.0000      Z      -3.9561
       Tot       3.9561
    Quadrupole Moments (Debye-Ang)
        XX     -27.3823     XY      -0.0000     YY     -27.3823
        XZ       0.0000     YZ      -0.0000     ZZ     -58.3926

             Standard Nuclear Orientation (Angstroms)
    I     Atom           X                Y                Z
 ----------------------------------------------------------------
    1      F       0.0000000000     0.0000000000     2.5214308121
    2      C       0.0000000000     0.0000000000     0.4314309546
    3      H       1.0548061461     0.0000000000     0.6270210109
    4      H      -0.5274030731    -0.9134889186     0.6270210109
    5      H      -0.5274030731     0.9134889186     0.6270210109
    6      Cl      0.0000000000     0.0000000000    -1.5977956511
 ----------------------------------------------------------------

 Frequency:      -459.92                 212.58                 212.58
 Force Cnst:      1.4806                 0.1048                 0.1048
 Red. Mass:      11.8803                 3.9373                 3.9373
 IR Intens:        0.000                  0.000                  0.000
 Frequency:       309.72                 945.40                 945.40
 Force Cnst:      1.2912                 0.5643                 0.5643
 Red. Mass:      22.8451                 1.0717                 1.0717
 IR Intens:        0.000                  0.000                  0.000
 Frequency:      1124.41                1405.28                1405.28
 Force Cnst:      0.7859                 1.2663                 1.2663
 Red. Mass:       1.0551                 1.0883                 1.0883
 IR Intens:        0.000                  0.000                  0.000
 Frequency:      3235.75                3419.23                3419.23
 Force Cnst:      6.2544                 7.7184                 7.7184
 Red. Mass:       1.0139                 1.1205                 1.1205
 IR Intens:        0.000                  0.000                  0.000

 STANDARD THERMODYNAMIC QUANTITIES FOR ANHARMONIC VIBRATION -- VPT2

   Zero point vibrational energy: ************ kcal/mol

   Vibrational Enthalpy:       Infinity kcal/mol
   Vibrational Entropy:             NaN  cal/mol.K

   Total Enthalpy:             Infinity kcal/mol
   Total Entropy:                   NaN  cal/mol.K

 Total job time:  152.74s(wall), 151.93s(cpu)
        *  Thank you very much for using Q-Chem.  Have a nice day.  *
