User input:
--------------------------------------------------------------
$molecule
0 1
C
H 1 1.066674
N 1 1.169686 2 80.0
$end

$rem
JOBTYPE OPT
EXCHANGE HF
CORRELATION MP2
BASIS 6-311G**
$end

$opt
CONSTRAINT
bend 3 1 2 80.0
ENDCONSTRAINT
$end
--------------------------------------------------------------

   15     -92.8167098324      7.62E-09 Convergence criterion met
 Total energy in the final basis set = -92.8167098324
        MP2         total energy =       -93.1490864659 au
   13     -92.8174329245      8.37E-09 Convergence criterion met
 Total energy in the final basis set = -92.8174329245
        MP2         total energy =       -93.1527169731 au
   13     -92.8202253605      6.41E-09 Convergence criterion met
 Total energy in the final basis set = -92.8202253605
        MP2         total energy =       -93.1536373247 au
   12     -92.8198560449      6.16E-09 Convergence criterion met
 Total energy in the final basis set = -92.8198560449
        MP2         total energy =       -93.1536947796 au
    8     -92.8198447784      9.10E-09 Convergence criterion met
 Total energy in the final basis set = -92.8198447784
        MP2         total energy =       -93.1536950973 au
 **  OPTIMIZATION CONVERGED  **
 Total job time:  7.20s(wall), 7.12s(cpu)
        *  Thank you very much for using Q-Chem.  Have a nice day.  *

User input: 2 of 16

/Users/Deb/Programs/trunk/build/qcprog.exe .hcn_hnc_fine.inp.27751.qcin.2 /tmp/qchem27751/

                  Welcome to Q-Chem
     A Quantum Leap Into The Future Of Chemistry

 Y. Shao, L. Fusti-Molnar, Y. Jung, J. Kussmann, C. Ochsenfeld, S. T. Brown,
 A. T. B. Gilbert, L. V. Slipchenko, S. V. Levchenko, D. P. O'Neill,
 R. A. DiStasio Jr., R. C. Lochan, T. Wang, G. J. O. Beran, N. A. Besley,
 J. M. Herbert, C. Y. Lin, T. Van Voorhis, S. H. Chien, A. Sodt, R. P. Steele,
 V. A. Rassolov, P. E. Maslen, P. P. Korambath, R. D. Adamson, B. Austin,
 J. Baker, E. F. C. Byrd, H. Dachsel, R. J. Doerksen, A. Dreuw, B. D. Dunietz,
 A. D. Dutoi, T. R. Furlani, S. R. Gwaltney, A. Heyden, S. Hirata, C.-P. Hsu,
 G. Kedziora, R. Z. Khaliullin, P. Klunzinger, A. M. Lee, M. S. Lee, W. Liang,
 I. Lotan, N. Nair, B. Peters, E. I. Proynov, P. A. Pieniazek, Y. M. Rhee,
 J. Ritchie, E. Rosta, C. D. Sherrill, A. C. Simmonett, J. E. Subotnik,
 H. L. Woodcock III, W. Zhang, A. T. Bell, A. K. Chakraborty, D. M. Chipman,
 F. J. Keil, A. Warshel, W. J. Hehre, H. F. Schaefer III, J. Kong,
 A. I. Krylov, P. M. W. Gill, M. Head-Gordon

 Additional authors for Version 3.1:
 Z. Gan, Y. Zhao, N. E. Schultz, D. Truhlar, E. Epifanovsky, M. Oana

 Additional authors for Version 3.2:
 R. Baer, B. R. Brooks, D. Casanova, J.-D. Chai, C.-L. Cheng, C. Cramer,
 D. Crittenden, A. Ghysels, G. Hawkins, E. G. Hohenstein, C. Kelley,
 W. Kurlancheek, D. Liotard, E. Livshits, P. Manohar, A. Marenich,
 D. Neuhauser, R. Olson, M. A. Rohrdanz, K. S. Thanthiriwatte, A. J. W. Thom,
 V. Vanovschi, C. F. Williams, Q. Wu, Z.-Q. You

 Additional authors for Version 4.0:
 A. Aspuru-Guzik, Y. Bernard, C. Chang, J. Deng, A. Dreuw, M. Diedenhofen,
 R. G. Edgar, D. Ghosh, W. A. Goddard III, M. Goldey, L. D. Jacobson,
 M. Gordon, B. Kaduk, I. Kaliman, K. Khistyaev, R. King, A. Klamt,
 D. Kosenkov, T. Kus, D. Lambrecht, A. Landau, A. W. Lange, K. Lawler, F. Liu,
 J. Liu, R. Olivares-Amaya, S. P. Mao, J. Parkhill, N. Russ, M. Schmidt,
 N. Shenvi, D. Small, Y. C. Su, E. Sundstrom, L. Vogt, O. Vydrov, M. Watson,
 M. Wormit, X. Xu, S. Yeganeh, I. Y. Zhang, D. Zuev

 Additional authors for Version 4.1:
 X. Feng, M. W. D. Hanson-Heine, P. Horn, H. Ji, A. Laurent, R. Peverati,
 N. Mardirossian, N. Sergueev, S. Sharada, P. Zimmerman

 Q-Chem, Version 4.1, Q-Chem, Inc., Pittsburgh, PA (2013).

 Parts of Q-Chem use Armadillo 4.100.2 (Dirt Cruiser).
 http://arma.sourceforge.net/

 MAC (Intel) OSX Version 4.1.2

 Q-chem begins on Tue May  6 12:59:36 2014

Deborahs-MacBook-Air.local
Host: 0

     Scratch files written to /tmp/qchem27751//
 Apr1114 |Users|Deb|Programs|trunk|libmdc|qstr_info.C -1
Finally everything over in PARseQInput

--------------------------------------------------------------
User input:
--------------------------------------------------------------
$molecule
read
$end

$rem
JOBTYPE OPT
EXCHANGE HF
CORRELATION MP2
BASIS 6-311G**
SCF_GUESS READ
$end

$opt
CONSTRAINT
bend 3 1 2 79.0
ENDCONSTRAINT
$end
--------------------------------------------------------------

        MP2         total energy =       -93.1549131483 au
 Final energy is   -93.154913148335908
   12     -92.8246375789      5.39E-09 Convergence criterion met
 Total energy in the final basis set = -92.8246375789
        MP2         total energy =       -93.1549131504 au
   11     -92.8247190302      8.49E-09 Convergence criterion met
 Total energy in the final basis set = -92.8247190302
        MP2         total energy =       -93.1554766401 au
   10     -92.8249538202      6.52E-09 Convergence criterion met
 Total energy in the final basis set = -92.8249538202
        MP2         total energy =       -93.1555046534 au

             Standard Nuclear Orientation (Angstroms)
    I     Atom           X                Y                Z
 ----------------------------------------------------------------
    1      C       0.6327604707    -0.1122899680     0.0000000000
    2      H       0.1772350886     1.0217124068     0.0000000000
    3      N      -0.5621820585    -0.0472642776     0.0000000000
 ----------------------------------------------------------------

   11     -92.8254344046      7.76E-09 Convergence criterion met
 Total energy in the final basis set = -92.8254344046
        MP2         total energy =       -93.1555287224 au
 Final energy is   -93.155528722367109
 **  OPTIMIZATION CONVERGED  **

             Orbital Energies (a.u.) and Symmetries
 --------------------------------------------------------------

 Alpha MOs, Restricted
 -- Occupied --
-15.649 -11.306  -1.316  -0.692  -0.637  -0.531  -0.499
  1 A'    2 A'    3 A'    4 A'    5 A'    1 A"    6 A'

 Beta MOs, Restricted
 -- Occupied --
-15.649 -11.306  -1.316  -0.692  -0.637  -0.531  -0.499
  1 A'    2 A'    3 A'    4 A'    5 A'    1 A"    6 A'

          Ground-State Mulliken Net Atomic Charges

     Atom                 Charge (a.u.)
  ----------------------------------------
      1 C                    -0.109623
      2 H                     0.215152
      3 N                    -0.105528
  ----------------------------------------
  Sum of atomic charges =    -0.000000

                    Cartesian Multipole Moments
 -----------------------------------------------------------------
    Charge (ESU x 10^10)
                -0.0000
    Dipole Moment (Debye)
         X      -0.1030      Y       1.2883      Z      -0.0000
       Tot       1.2924
    Quadrupole Moments (Debye-Ang)
        XX     -14.7137     XY       0.3659     YY      -9.6381
        XZ      -0.0000     YZ       0.0000     ZZ     -12.2278

 Total job time:  5.37s(wall), 5.29s(cpu)
        *  Thank you very much for using Q-Chem.  Have a nice day.  *
