User input:
--------------------------------------------------------------
$molecule
0 1
X
C X 1.0
N C 1.169686 X 90.0
H C 1.066674 X 90.0 N 180.0
$end

$rem
JOBTYPE OPT
EXCHANGE HF
CORRELATION MP2
BASIS 6-311G**
$end
--------------------------------------------------------------

   12     -92.8951611690      9.88E-09 Convergence criterion met
 Total energy in the final basis set = -92.8951611690
        MP2         total energy =       -93.2373601784 au
 Final energy is   -93.237360178424737
 **  OPTIMIZATION CONVERGED  **
 Total job time:  1.95s(wall), 1.59s(cpu)
        *  Thank you very much for using Q-Chem.  Have a nice day.  *

User input: 2 of 2

                  Welcome to Q-Chem
     A Quantum Leap Into The Future Of Chemistry

 Y. Shao, L. Fusti-Molnar, Y. Jung, J. Kussmann, C. Ochsenfeld, S. T. Brown,
 A. T. B. Gilbert, L. V. Slipchenko, S. V. Levchenko, D. P. O'Neill,
 R. A. DiStasio Jr., R. C. Lochan, T. Wang, G. J. O. Beran, N. A. Besley,
 J. M. Herbert, C. Y. Lin, T. Van Voorhis, S. H. Chien, A. Sodt, R. P. Steele,
 V. A. Rassolov, P. E. Maslen, P. P. Korambath, R. D. Adamson, B. Austin,
 J. Baker, E. F. C. Byrd, H. Dachsel, R. J. Doerksen, A. Dreuw, B. D. Dunietz,
 A. D. Dutoi, T. R. Furlani, S. R. Gwaltney, A. Heyden, S. Hirata, C.-P. Hsu,
 G. Kedziora, R. Z. Khaliullin, P. Klunzinger, A. M. Lee, M. S. Lee, W. Liang,
 I. Lotan, N. Nair, B. Peters, E. I. Proynov, P. A. Pieniazek, Y. M. Rhee,
 J. Ritchie, E. Rosta, C. D. Sherrill, A. C. Simmonett, J. E. Subotnik,
 H. L. Woodcock III, W. Zhang, A. T. Bell, A. K. Chakraborty, D. M. Chipman,
 F. J. Keil, A. Warshel, W. J. Hehre, H. F. Schaefer III, J. Kong,
 A. I. Krylov, P. M. W. Gill, M. Head-Gordon

 Additional authors for Version 3.1:
 Z. Gan, Y. Zhao, N. E. Schultz, D. Truhlar, E. Epifanovsky, M. Oana

 Additional authors for Version 3.2:
 R. Baer, B. R. Brooks, D. Casanova, J.-D. Chai, C.-L. Cheng, C. Cramer,
 D. Crittenden, A. Ghysels, G. Hawkins, E. G. Hohenstein, C. Kelley,
 W. Kurlancheek, D. Liotard, E. Livshits, P. Manohar, A. Marenich,
 D. Neuhauser, R. Olson, M. A. Rohrdanz, K. S. Thanthiriwatte, A. J. W. Thom,
 V. Vanovschi, C. F. Williams, Q. Wu, Z.-Q. You

 Additional authors for Version 4.0:
 A. Aspuru-Guzik, Y. Bernard, C. Chang, J. Deng, A. Dreuw, M. Diedenhofen,
 R. G. Edgar, D. Ghosh, W. A. Goddard III, M. Goldey, L. D. Jacobson,
 M. Gordon, B. Kaduk, I. Kaliman, K. Khistyaev, R. King, A. Klamt,
 D. Kosenkov, T. Kus, D. Lambrecht, A. Landau, A. W. Lange, K. Lawler, F. Liu,
 J. Liu, R. Olivares-Amaya, S. P. Mao, J. Parkhill, N. Russ, M. Schmidt,
 N. Shenvi, D. Small, Y. C. Su, E. Sundstrom, L. Vogt, O. Vydrov, M. Watson,
 M. Wormit, X. Xu, S. Yeganeh, I. Y. Zhang, D. Zuev

 Additional authors for Version 4.1:
 X. Feng, M. W. D. Hanson-Heine, P. Horn, H. Ji, A. Laurent, R. Peverati,
 N. Mardirossian, N. Sergueev, S. Sharada, P. Zimmerman

 Q-Chem, Version 4.1, Q-Chem, Inc., Pittsburgh, PA (2013).

 Parts of Q-Chem use Armadillo 4.100.2 (Dirt Cruiser).
 http://arma.sourceforge.net/

 MAC (Intel) OSX Version 4.1.2

 Q-chem begins on Sat May 10 14:05:43 2014

Deborahs-MacBook-Air.local
Host: 0

     Scratch files written to /tmp/qchem33416//
 Apr1114 |Users|Deb|Programs|trunk|libmdc|qstr_info.C -1

 Q-Chem warning in module /Users/Deb/Programs/trunk/libgen/rem.C, line 2629:

 !!Desired Analytical derivatives not available.

 2-order derivative to be evaluated numerically with 1-order analytical derivatives
Finally everything over in PARseQInput

--------------------------------------------------------------
User input:
--------------------------------------------------------------
$molecule
read
$end

$rem
JOBTYPE FREQ
EXCHANGE HF
CORRELATION MP2
BASIS 6-311G**
SCF_GUESS READ
$end
--------------------------------------------------------------

    2     -92.8951611666      2.56E-10 Convergence criterion met
 Total energy in the final basis set = -92.8951611666
        MP2         total energy =       -93.2373601761 au
    8     -92.8951609426      5.73E-09 Convergence criterion met
 Total energy in the final basis set = -92.8951609426
        MP2         total energy =       -93.2373600691 au
    9     -92.8951609426      8.28E-09 Convergence criterion met
 Total energy in the final basis set = -92.8951609426
        MP2         total energy =       -93.2373600690 au
    9     -92.8951609426      7.57E-09 Convergence criterion met
 Total energy in the final basis set = -92.8951609426
    8     -92.8951611260      2.56E-09 Convergence criterion met
 Total energy in the final basis set = -92.8951611260
        MP2         total energy =       -93.2373601471 au
    8     -92.8951611260      1.81E-09 Convergence criterion met
 Total energy in the final basis set = -92.8951611260
        MP2         total energy =       -93.2373601470 au
    8     -92.8951611260      2.56E-09 Convergence criterion met
 Total energy in the final basis set = -92.8951611260
        MP2         total energy =       -93.2373601471 au
    9     -92.8951719171      1.96E-09 Convergence criterion met
 Total energy in the final basis set = -92.8951719171
        MP2         total energy =       -93.2373594318 au
    8     -92.8951489143      1.58E-09 Convergence criterion met
 Total energy in the final basis set = -92.8951489143
        MP2         total energy =       -93.2373594318 au

                    Orbital Energies (a.u.)
 --------------------------------------------------------------

 Alpha MOs
 -- Occupied --
-15.603 -11.295  -1.229  -0.812  -0.581  -0.490  -0.490

          Ground-State Mulliken Net Atomic Charges

     Atom                 Charge (a.u.)
  ----------------------------------------
      1 C                     0.031131
      2 N                    -0.214861
      3 H                     0.183731
  ----------------------------------------
  Sum of atomic charges =     0.000000

                    Cartesian Multipole Moments
 -----------------------------------------------------------------
    Charge (ESU x 10^10)
                 0.0000
    Dipole Moment (Debye)
         X      -0.0000      Y      -0.0000      Z      -2.8916
       Tot       2.8916
    Quadrupole Moments (Debye-Ang)
        XX     -11.6336     XY      -0.0000     YY     -11.6336
        XZ       0.0000     YZ      -0.0000     ZZ      -9.9431

             Standard Nuclear Orientation (Angstroms)
    I     Atom           X                Y                Z
 ----------------------------------------------------------------
    1      C       0.0000000000    -0.0000000000    -0.5086520000
    2      N       0.0000000000    -0.0000000000     0.6610340000
    3      H       0.0000000000     0.0000000000    -1.5753260000
 ----------------------------------------------------------------

 Frequency:       764.65                 764.65                2026.63
 Force Cnst:      0.4607                 0.4607                13.9302
 Red. Mass:       1.3373                 1.3373                 5.7565
 IR Intens:        0.000                  0.000                  0.000
 Frequency:      3499.18
 Force Cnst:      8.3672
 Red. Mass:       1.1598
 IR Intens:        0.000

 STANDARD THERMODYNAMIC QUANTITIES FOR ANHARMONIC VIBRATION -- VPT2

   Zero point vibrational energy: ************ kcal/mol

   Vibrational Enthalpy:       Infinity kcal/mol
   Vibrational Entropy:             NaN  cal/mol.K

   Total Enthalpy:             Infinity kcal/mol
   Total Entropy:                   NaN  cal/mol.K

 Total job time:  22.59s(wall), 22.32s(cpu)
        *  Thank you very much for using Q-Chem.  Have a nice day.  *
