User input:
--------------------------------------------------------------
$molecule
0 1
X
C X 1.0
N C 1.169686 X 90.0
H C 1.066674 X 90.0 N 180.0
$end

$rem
JOBTYPE OPT
EXCHANGE HF
CORRELATION MP2
BASIS 6-311G**
$end
--------------------------------------------------------------

   12     -92.8951611690      9.88E-09 Convergence criterion met
 Total energy in the final basis set = -92.8951611690
        MP2         total energy =       -93.2373601784 au
 Final energy is   -93.237360178424737
 **  OPTIMIZATION CONVERGED  **
 Total job time:  1.35s(wall), 1.32s(cpu)
        *  Thank you very much for using Q-Chem.  Have a nice day.  *

User input: 2 of 17

/Users/Deb/Programs/trunk/build/qcprog.exe .hcn_hnc.inp.26844.qcin.2 /tmp/qchem26844/

                  Welcome to Q-Chem
     A Quantum Leap Into The Future Of Chemistry

 Y. Shao, L. Fusti-Molnar, Y. Jung, J. Kussmann, C. Ochsenfeld, S. T. Brown,
 A. T. B. Gilbert, L. V. Slipchenko, S. V. Levchenko, D. P. O'Neill,
 R. A. DiStasio Jr., R. C. Lochan, T. Wang, G. J. O. Beran, N. A. Besley,
 J. M. Herbert, C. Y. Lin, T. Van Voorhis, S. H. Chien, A. Sodt, R. P. Steele,
 V. A. Rassolov, P. E. Maslen, P. P. Korambath, R. D. Adamson, B. Austin,
 J. Baker, E. F. C. Byrd, H. Dachsel, R. J. Doerksen, A. Dreuw, B. D. Dunietz,
 A. D. Dutoi, T. R. Furlani, S. R. Gwaltney, A. Heyden, S. Hirata, C.-P. Hsu,
 G. Kedziora, R. Z. Khaliullin, P. Klunzinger, A. M. Lee, M. S. Lee, W. Liang,
 I. Lotan, N. Nair, B. Peters, E. I. Proynov, P. A. Pieniazek, Y. M. Rhee,
 J. Ritchie, E. Rosta, C. D. Sherrill, A. C. Simmonett, J. E. Subotnik,
 H. L. Woodcock III, W. Zhang, A. T. Bell, A. K. Chakraborty, D. M. Chipman,
 F. J. Keil, A. Warshel, W. J. Hehre, H. F. Schaefer III, J. Kong,
 A. I. Krylov, P. M. W. Gill, M. Head-Gordon

 Additional authors for Version 3.1:
 Z. Gan, Y. Zhao, N. E. Schultz, D. Truhlar, E. Epifanovsky, M. Oana

 Additional authors for Version 3.2:
 R. Baer, B. R. Brooks, D. Casanova, J.-D. Chai, C.-L. Cheng, C. Cramer,
 D. Crittenden, A. Ghysels, G. Hawkins, E. G. Hohenstein, C. Kelley,
 W. Kurlancheek, D. Liotard, E. Livshits, P. Manohar, A. Marenich,
 D. Neuhauser, R. Olson, M. A. Rohrdanz, K. S. Thanthiriwatte, A. J. W. Thom,
 V. Vanovschi, C. F. Williams, Q. Wu, Z.-Q. You

 Additional authors for Version 4.0:
 A. Aspuru-Guzik, Y. Bernard, C. Chang, J. Deng, A. Dreuw, M. Diedenhofen,
 R. G. Edgar, D. Ghosh, W. A. Goddard III, M. Goldey, L. D. Jacobson,
 M. Gordon, B. Kaduk, I. Kaliman, K. Khistyaev, R. King, A. Klamt,
 D. Kosenkov, T. Kus, D. Lambrecht, A. Landau, A. W. Lange, K. Lawler, F. Liu,
 J. Liu, R. Olivares-Amaya, S. P. Mao, J. Parkhill, N. Russ, M. Schmidt,
 N. Shenvi, D. Small, Y. C. Su, E. Sundstrom, L. Vogt, O. Vydrov, M. Watson,
 M. Wormit, X. Xu, S. Yeganeh, I. Y. Zhang, D. Zuev

 Additional authors for Version 4.1:
 X. Feng, M. W. D. Hanson-Heine, P. Horn, H. Ji, A. Laurent, R. Peverati,
 N. Mardirossian, N. Sergueev, S. Sharada, P. Zimmerman

 Q-Chem, Version 4.1, Q-Chem, Inc., Pittsburgh, PA (2013).

 Parts of Q-Chem use Armadillo 4.100.2 (Dirt Cruiser).
 http://arma.sourceforge.net/

 MAC (Intel) OSX Version 4.1.2

 Q-chem begins on Tue May  6 12:23:40 2014

Deborahs-MacBook-Air.local
Host: 0

     Scratch files written to /tmp/qchem26844//
 Apr1114 |Users|Deb|Programs|trunk|libmdc|qstr_info.C -1
Finally everything over in PARseQInput

--------------------------------------------------------------
User input:
--------------------------------------------------------------
$molecule
0 1
C
H 1 1.066674
N 1 1.169686 2 160.0
$end

$rem
JOBTYPE OPT
EXCHANGE HF
CORRELATION MP2
BASIS 6-311G**
SCF_GUESS READ
$end

$opt
CONSTRAINT
bend 3 1 2 160.0
ENDCONSTRAINT
$end
--------------------------------------------------------------

   18     -92.8903490972      4.96E-09 Convergence criterion met
 Total energy in the final basis set = -92.8903490972
        MP2         total energy =       -93.2333736826 au
   13     -92.8894488205      3.44E-09 Convergence criterion met
 Total energy in the final basis set = -92.8894488205
        MP2         total energy =       -93.2333734554 au
   11     -92.8898588798      7.51E-09 Convergence criterion met
 Total energy in the final basis set = -92.8898588798
        MP2         total energy =       -93.2333865693 au
    8     -92.8898541457      5.51E-09 Convergence criterion met
 Total energy in the final basis set = -92.8898541457
 Total energy in the final basis set = -92.8784123984
        MP2         total energy =       -93.2064655817 au
   14     -92.8802455696      4.94E-09 Convergence criterion met
 Total energy in the final basis set = -92.8802455696
        MP2         total energy =       -93.2072392161 au
   10     -92.8801532481      1.97E-09 Convergence criterion met
 Total energy in the final basis set = -92.8801532481
        MP2         total energy =       -93.2072443619 au
    9     -92.8803553819      7.88E-09 Convergence criterion met
 Total energy in the final basis set = -92.8803553819
        MP2         total energy =       -93.2072456051 au

             Standard Nuclear Orientation (Angstroms)
    I     Atom           X                Y                Z
 ----------------------------------------------------------------
    1      C       0.7673618028     0.0862047234     0.0000000000
    2      N      -0.3835764466    -0.1730328757     0.0000000000
    3      H      -1.3580895737    -0.3915529532     0.0000000000
 ----------------------------------------------------------------

    9     -92.8802746155      6.07E-09 Convergence criterion met
 Total energy in the final basis set = -92.8802746155
        MP2         total energy =       -93.2072464246 au
 Final energy is   -93.207246424598338
 **  OPTIMIZATION CONVERGED  **

             Orbital Energies (a.u.) and Symmetries
 --------------------------------------------------------------

 Alpha MOs, Restricted
 -- Occupied --
-15.602 -11.298  -1.258  -0.871  -0.514  -0.514  -0.490
  1 A'    2 A'    3 A'    4 A'    1 A"    5 A'    6 A'

 Beta MOs, Restricted
 -- Occupied --
-15.602 -11.298  -1.258  -0.871  -0.514  -0.514  -0.490
  1 A'    2 A'    3 A'    4 A'    1 A"    5 A'    6 A'

          Ground-State Mulliken Net Atomic Charges

     Atom                 Charge (a.u.)
  ----------------------------------------
      1 C                    -0.005921
      2 N                    -0.242244
      3 H                     0.248165
  ----------------------------------------
  Sum of atomic charges =     0.000000

                    Cartesian Multipole Moments
 -----------------------------------------------------------------
    Charge (ESU x 10^10)
                -0.0000
    Dipole Moment (Debye)
         X      -3.2078      Y      -0.7205      Z      -0.0000
       Tot       3.2877
    Quadrupole Moments (Debye-Ang)
        XX     -10.7180     XY       0.5414     YY     -11.7150
        XZ      -0.0000     YZ      -0.0000     ZZ     -11.8986

 Total job time:  10.69s(wall), 10.52s(cpu)
        *  Thank you very much for using Q-Chem.  Have a nice day.  *
