User input:
--------------------------------------------------------------
$molecule
0 1
C
H 1 1.066674
N 1 1.169686 2 74.0
$end

$rem
JOBTYPE OPT
EXCHANGE HF
CORRELATION MP2
BASIS 6-311G**
$end

$opt
CONSTRAINT
bend 3 1 2 74.0
ENDCONSTRAINT
$end
--------------------------------------------------------------

   15     -92.8149743179      7.26E-09 Convergence criterion met
 Total energy in the final basis set = -92.8149743179
        MP2         total energy =       -93.1452704942 au
   14     -92.8203187240      3.10E-09 Convergence criterion met
 Total energy in the final basis set = -92.8203187240
        MP2         total energy =       -93.1518686998 au
   12     -92.8203548558      8.13E-09 Convergence criterion met
 Total energy in the final basis set = -92.8203548558
        MP2         total energy =       -93.1523298753 au
   11     -92.8203464155      5.46E-09 Convergence criterion met
 Total energy in the final basis set = -92.8203464155
        MP2         total energy =       -93.1523563309 au
 Final energy is   -93.152356330880963
 **  OPTIMIZATION CONVERGED  **
 Total job time:  5.79s(wall), 5.69s(cpu)
        *  Thank you very much for using Q-Chem.  Have a nice day.  *

User input: 2 of 2

                  Welcome to Q-Chem
     A Quantum Leap Into The Future Of Chemistry

 Y. Shao, L. Fusti-Molnar, Y. Jung, J. Kussmann, C. Ochsenfeld, S. T. Brown,
 A. T. B. Gilbert, L. V. Slipchenko, S. V. Levchenko, D. P. O'Neill,
 R. A. DiStasio Jr., R. C. Lochan, T. Wang, G. J. O. Beran, N. A. Besley,
 J. M. Herbert, C. Y. Lin, T. Van Voorhis, S. H. Chien, A. Sodt, R. P. Steele,
 V. A. Rassolov, P. E. Maslen, P. P. Korambath, R. D. Adamson, B. Austin,
 J. Baker, E. F. C. Byrd, H. Dachsel, R. J. Doerksen, A. Dreuw, B. D. Dunietz,
 A. D. Dutoi, T. R. Furlani, S. R. Gwaltney, A. Heyden, S. Hirata, C.-P. Hsu,
 G. Kedziora, R. Z. Khaliullin, P. Klunzinger, A. M. Lee, M. S. Lee, W. Liang,
 I. Lotan, N. Nair, B. Peters, E. I. Proynov, P. A. Pieniazek, Y. M. Rhee,
 J. Ritchie, E. Rosta, C. D. Sherrill, A. C. Simmonett, J. E. Subotnik,
 H. L. Woodcock III, W. Zhang, A. T. Bell, A. K. Chakraborty, D. M. Chipman,
 F. J. Keil, A. Warshel, W. J. Hehre, H. F. Schaefer III, J. Kong,
 A. I. Krylov, P. M. W. Gill, M. Head-Gordon

 Additional authors for Version 3.1:
 Z. Gan, Y. Zhao, N. E. Schultz, D. Truhlar, E. Epifanovsky, M. Oana

 Additional authors for Version 3.2:
 R. Baer, B. R. Brooks, D. Casanova, J.-D. Chai, C.-L. Cheng, C. Cramer,
 D. Crittenden, A. Ghysels, G. Hawkins, E. G. Hohenstein, C. Kelley,
 W. Kurlancheek, D. Liotard, E. Livshits, P. Manohar, A. Marenich,
 D. Neuhauser, R. Olson, M. A. Rohrdanz, K. S. Thanthiriwatte, A. J. W. Thom,
 V. Vanovschi, C. F. Williams, Q. Wu, Z.-Q. You

 Additional authors for Version 4.0:
 A. Aspuru-Guzik, Y. Bernard, C. Chang, J. Deng, A. Dreuw, M. Diedenhofen,
 R. G. Edgar, D. Ghosh, W. A. Goddard III, M. Goldey, L. D. Jacobson,
 M. Gordon, B. Kaduk, I. Kaliman, K. Khistyaev, R. King, A. Klamt,
 D. Kosenkov, T. Kus, D. Lambrecht, A. Landau, A. W. Lange, K. Lawler, F. Liu,
 J. Liu, R. Olivares-Amaya, S. P. Mao, J. Parkhill, N. Russ, M. Schmidt,
 N. Shenvi, D. Small, Y. C. Su, E. Sundstrom, L. Vogt, O. Vydrov, M. Watson,
 M. Wormit, X. Xu, S. Yeganeh, I. Y. Zhang, D. Zuev

 Additional authors for Version 4.1:
 X. Feng, M. W. D. Hanson-Heine, P. Horn, H. Ji, A. Laurent, R. Peverati,
 N. Mardirossian, N. Sergueev, S. Sharada, P. Zimmerman

 Q-Chem, Version 4.1, Q-Chem, Inc., Pittsburgh, PA (2013).

 Parts of Q-Chem use Armadillo 4.100.2 (Dirt Cruiser).
 http://arma.sourceforge.net/

 MAC (Intel) OSX Version 4.1.2

 Q-chem begins on Tue May  6 14:03:21 2014

Deborahs-MacBook-Air.local
Host: 0

     Scratch files written to /tmp/qchem28919//
 Apr1114 |Users|Deb|Programs|trunk|libmdc|qstr_info.C -1

 Q-Chem warning in module /Users/Deb/Programs/trunk/libgen/rem.C, line 2629:

 !!Desired Analytical derivatives not available.

 2-order derivative to be evaluated numerically with 1-order analytical derivatives
Finally everything over in PARseQInput

--------------------------------------------------------------
User input:
--------------------------------------------------------------
$molecule
read
$end

$rem
JOBTYPE FREQ
EXCHANGE HF
CORRELATION MP2
BASIS 6-311G**
SCF_GUESS READ
$end
--------------------------------------------------------------

   12     -92.8203464157      8.23E-09 Convergence criterion met
 Total energy in the final basis set = -92.8203464157
   11     -92.8204514063      7.58E-09 Convergence criterion met
 Total energy in the final basis set = -92.8204514063
        MP2         total energy =       -93.1523547067 au
   11     -92.8202377350      6.72E-09 Convergence criterion met
 Total energy in the final basis set = -92.8202377350
        MP2         total energy =       -93.1523540407 au
   10     -92.8203519773      4.43E-09 Convergence criterion met
 Total energy in the final basis set = -92.8203519773
        MP2         total energy =       -93.1523570973 au
   11     -92.8203408397      5.82E-09 Convergence criterion met
 Total energy in the final basis set = -92.8203408397
        MP2         total energy =       -93.1523556257 au
   10     -92.8203463694      6.16E-09 Convergence criterion met
 Total energy in the final basis set = -92.8203463694
        MP2         total energy =       -93.1523563326 au

                    Orbital Energies (a.u.)
 --------------------------------------------------------------

 Alpha MOs
 -- Occupied --
-15.654 -11.295  -1.305  -0.710  -0.622  -0.530  -0.495

          Ground-State Mulliken Net Atomic Charges

     Atom                 Charge (a.u.)
  ----------------------------------------
      1 C                    -0.118568
      2 H                     0.219454
      3 N                    -0.100886
  ----------------------------------------
  Sum of atomic charges =     0.000000

                    Cartesian Multipole Moments
 -----------------------------------------------------------------
    Charge (ESU x 10^10)
                 0.0000
    Dipole Moment (Debye)
         X       0.2542      Y       1.2683      Z      -0.0004
       Tot       1.2936
    Quadrupole Moments (Debye-Ang)
        XX     -14.2690     XY       0.7228     YY      -9.7514
        XZ       0.0018     YZ      -0.0004     ZZ     -12.2009

             Standard Nuclear Orientation (Angstroms)
    I     Atom           X                Y                Z
 ----------------------------------------------------------------
    1      C       0.6080441176    -0.1380984556    -0.0000000000
    2      H       0.3923683746     1.0129003606     0.0000000000
    3      N      -0.5772332972    -0.0263299467     0.0000000000
 ----------------------------------------------------------------

 Frequency:     -1277.57                2086.74                2768.98
 Force Cnst:      1.1270                29.1803                 4.7978
 Red. Mass:       1.1720                11.3737                 1.0621
 IR Intens:        0.000                  0.000                  0.000

 STANDARD THERMODYNAMIC QUANTITIES FOR ANHARMONIC VIBRATION -- VPT2

   Zero point vibrational energy:        0.000 kcal/mol

   Vibrational Enthalpy:       Infinity kcal/mol
   Vibrational Entropy:             NaN  cal/mol.K

   Total Enthalpy:             Infinity kcal/mol
   Total Entropy:                   NaN  cal/mol.K

 Total job time:  23.21s(wall), 22.97s(cpu)
        *  Thank you very much for using Q-Chem.  Have a nice day.  *
