User input:
--------------------------------------------------------------
$molecule
0 1
C 0.000000 0.000000 -0.488372
H 1.062087 0.000000 -0.614972
H -0.531044 0.919794 -0.614972
H -0.531044 -0.919794 -0.614972
Cl 0.000000 0.000000 1.624501
$end

$rem
JOBTYPE OPT
EXCHANGE HF
CORRELATION MP2
BASIS 6-311G**
$end
--------------------------------------------------------------

   13    -499.1034450196      6.00E-09 Convergence criterion met
 Total energy in the final basis set = -499.1034450196
        MP2         total energy =      -499.4622862900 au
   11    -499.1192978925      3.34E-09 Convergence criterion met
 Total energy in the final basis set = -499.1192978925
        MP2         total energy =      -499.4801102750 au
   10    -499.1291302668      7.68E-09 Convergence criterion met
 Total energy in the final basis set = -499.1291302668
        MP2         total energy =      -499.4915879753 au
   10    -499.1297793730      5.80E-09 Convergence criterion met
 Total energy in the final basis set = -499.1297793730
        MP2         total energy =      -499.4937647538 au
   10    -499.1305000296      4.11E-09 Convergence criterion met
 Total energy in the final basis set = -499.1305000296
        MP2         total energy =      -499.4940878750 au
 **  OPTIMIZATION CONVERGED  **
 Total job time:  27.98s(wall), 27.72s(cpu)
        *  Thank you very much for using Q-Chem.  Have a nice day.  *

User input: 2 of 2

                  Welcome to Q-Chem
     A Quantum Leap Into The Future Of Chemistry

 Y. Shao, L. Fusti-Molnar, Y. Jung, J. Kussmann, C. Ochsenfeld, S. T. Brown,
 A. T. B. Gilbert, L. V. Slipchenko, S. V. Levchenko, D. P. O'Neill,
 R. A. DiStasio Jr., R. C. Lochan, T. Wang, G. J. O. Beran, N. A. Besley,
 J. M. Herbert, C. Y. Lin, T. Van Voorhis, S. H. Chien, A. Sodt, R. P. Steele,
 V. A. Rassolov, P. E. Maslen, P. P. Korambath, R. D. Adamson, B. Austin,
 J. Baker, E. F. C. Byrd, H. Dachsel, R. J. Doerksen, A. Dreuw, B. D. Dunietz,
 A. D. Dutoi, T. R. Furlani, S. R. Gwaltney, A. Heyden, S. Hirata, C.-P. Hsu,
 G. Kedziora, R. Z. Khaliullin, P. Klunzinger, A. M. Lee, M. S. Lee, W. Liang,
 I. Lotan, N. Nair, B. Peters, E. I. Proynov, P. A. Pieniazek, Y. M. Rhee,
 J. Ritchie, E. Rosta, C. D. Sherrill, A. C. Simmonett, J. E. Subotnik,
 H. L. Woodcock III, W. Zhang, A. T. Bell, A. K. Chakraborty, D. M. Chipman,
 F. J. Keil, A. Warshel, W. J. Hehre, H. F. Schaefer III, J. Kong,
 A. I. Krylov, P. M. W. Gill, M. Head-Gordon

 Additional authors for Version 3.1:
 Z. Gan, Y. Zhao, N. E. Schultz, D. Truhlar, E. Epifanovsky, M. Oana

 Additional authors for Version 3.2:
 R. Baer, B. R. Brooks, D. Casanova, J.-D. Chai, C.-L. Cheng, C. Cramer,
 D. Crittenden, A. Ghysels, G. Hawkins, E. G. Hohenstein, C. Kelley,
 W. Kurlancheek, D. Liotard, E. Livshits, P. Manohar, A. Marenich,
 D. Neuhauser, R. Olson, M. A. Rohrdanz, K. S. Thanthiriwatte, A. J. W. Thom,
 V. Vanovschi, C. F. Williams, Q. Wu, Z.-Q. You

 Additional authors for Version 4.0:
 A. Aspuru-Guzik, Y. Bernard, C. Chang, J. Deng, A. Dreuw, M. Diedenhofen,
 R. G. Edgar, D. Ghosh, W. A. Goddard III, M. Goldey, L. D. Jacobson,
 M. Gordon, B. Kaduk, I. Kaliman, K. Khistyaev, R. King, A. Klamt,
 D. Kosenkov, T. Kus, D. Lambrecht, A. Landau, A. W. Lange, K. Lawler, F. Liu,
 J. Liu, R. Olivares-Amaya, S. P. Mao, J. Parkhill, N. Russ, M. Schmidt,
 N. Shenvi, D. Small, Y. C. Su, E. Sundstrom, L. Vogt, O. Vydrov, M. Watson,
 M. Wormit, X. Xu, S. Yeganeh, I. Y. Zhang, D. Zuev

 Additional authors for Version 4.1:
 X. Feng, M. W. D. Hanson-Heine, P. Horn, H. Ji, A. Laurent, R. Peverati,
 N. Mardirossian, N. Sergueev, S. Sharada, P. Zimmerman

 Q-Chem, Version 4.1, Q-Chem, Inc., Pittsburgh, PA (2013).

 Parts of Q-Chem use Armadillo 4.100.2 (Dirt Cruiser).
 http://arma.sourceforge.net/

 MAC (Intel) OSX Version 4.1.2

 Q-chem begins on Wed May  7 14:17:40 2014

Deborahs-MacBook-Air.local
Host: 0

     Scratch files written to /tmp/qchem30643//
 Apr1114 |Users|Deb|Programs|trunk|libmdc|qstr_info.C -1

 Q-Chem warning in module /Users/Deb/Programs/trunk/libgen/rem.C, line 2629:

 !!Desired Analytical derivatives not available.

 2-order derivative to be evaluated numerically with 1-order analytical derivatives
Finally everything over in PARseQInput

--------------------------------------------------------------
User input:
--------------------------------------------------------------
$molecule
read
$end

$rem
JOBTYPE FREQ
EXCHANGE HF
CORRELATION MP2
BASIS 6-311G**
SCF_GUESS READ
$end
--------------------------------------------------------------

    8    -499.1304770698      4.20E-09 Convergence criterion met
 Total energy in the final basis set = -499.1304770698
        MP2         total energy =      -499.4941116628 au
    7    -499.1304770698      7.16E-09 Convergence criterion met
 Total energy in the final basis set = -499.1304770698
        MP2         total energy =      -499.4941116625 au
    7    -499.1304770698      4.98E-09 Convergence criterion met
 Total energy in the final basis set = -499.1304770698
        MP2         total energy =      -499.4941116628 au
    8    -499.1304684253      6.75E-09 Convergence criterion met
 Total energy in the final basis set = -499.1304684253
        MP2         total energy =      -499.4941112379 au
    8    -499.1304848792      5.06E-09 Convergence criterion met
 Total energy in the final basis set = -499.1304848792
        MP2         total energy =      -499.4941112771 au

                    Orbital Energies (a.u.)
 --------------------------------------------------------------

 Alpha MOs
 -- Occupied --
******* -11.294 -10.553  -8.021  -8.018  -8.018  -1.133  -0.918
 -0.620  -0.620  -0.551  -0.437  -0.437

          Ground-State Mulliken Net Atomic Charges

     Atom                 Charge (a.u.)
  ----------------------------------------
      1 C                    -0.330835
      2 H                     0.147830
      3 H                     0.147830
      4 H                     0.147830
      5 Cl                   -0.112657
  ----------------------------------------
  Sum of atomic charges =    -0.000000

                    Cartesian Multipole Moments
 -----------------------------------------------------------------
    Charge (ESU x 10^10)
                -0.0000
    Dipole Moment (Debye)
         X      -0.0000      Y       0.0000      Z       1.9525
       Tot       1.9525
    Quadrupole Moments (Debye-Ang)
        XX     -20.3220     XY      -0.0000     YY     -20.3220
        XZ      -0.0000     YZ      -0.0000     ZZ     -18.7019

             Standard Nuclear Orientation (Angstroms)
    I     Atom           X                Y                Z
 ----------------------------------------------------------------
    1      C       0.0000000000     0.0000000000     1.1196423701
    2      H       1.0285249200     0.0000000000     1.4735823060
    3      H      -0.5142624600    -0.8907287091     1.4735823060
    4      H      -0.5142624600     0.8907287091     1.4735823060
    5      Cl      0.0000000000     0.0000000000    -0.6552118317
 ----------------------------------------------------------------

 Frequency:       787.22                1064.94                1064.94
 Force Cnst:      2.4436                 0.7896                 0.7896
 Red. Mass:       6.6923                 1.1816                 1.1816
 IR Intens:        0.000                  0.000                  0.000
 Frequency:      1442.24                1495.77                1495.77
 Force Cnst:      1.4001                 1.3829                 1.3829
 Red. Mass:       1.1424                 1.0491                 1.0491
 IR Intens:        0.000                  0.000                  0.000
 Frequency:      3125.06                3232.97                3232.97
 Force Cnst:      5.9220                 6.8247                 6.8247
 Red. Mass:       1.0292                 1.1082                 1.1082
 IR Intens:        0.000                  0.000                  0.000

 STANDARD THERMODYNAMIC QUANTITIES FOR ANHARMONIC VIBRATION -- VPT2

   Zero point vibrational energy: ************ kcal/mol

   Vibrational Enthalpy:       Infinity kcal/mol
   Vibrational Entropy:             NaN  cal/mol.K

   Total Enthalpy:             Infinity kcal/mol
   Total Entropy:                   NaN  cal/mol.K

 Total job time:  61.87s(wall), 62.16s(cpu)
        *  Thank you very much for using Q-Chem.  Have a nice day.  *
