User input:
--------------------------------------------------------------
$molecule
-1 1
F 0.000000 0.000000 -2.537929
C 0.000000 0.000000 -0.488372
H 1.062087 0.000000 -0.614972
H -0.531044 0.919794 -0.614972
H -0.531044 -0.919794 -0.614972
Cl 0.000000 0.000000 1.624501
$end

$rem
JOBTYPE OPT
EXCHANGE HF
CORRELATION MP2
BASIS 6-311G**
$end

$opt
CONSTRAINT
stre 1 2 2.06
ENDCONSTRAINT
$end
--------------------------------------------------------------

   15    -598.5735958834      2.31E-09 Convergence criterion met
 Total energy in the final basis set = -598.5735958834
        MP2         total energy =      -599.1671557039 au
    9    -598.5736596860      8.35E-09 Convergence criterion met
 Total energy in the final basis set = -598.5736596860
        MP2         total energy =      -599.1669843175 au
    9    -598.5735926987      2.59E-09 Convergence criterion met
 Total energy in the final basis set = -598.5735926987
        MP2         total energy =      -599.1669866337 au
    8    -598.5735715116      3.22E-09 Convergence criterion met
 Total energy in the final basis set = -598.5735715116
        MP2         total energy =      -599.1669872096 au
 Final energy is   -599.16698720959755
 **  OPTIMIZATION CONVERGED  **
 Total job time:  32.95s(wall), 32.74s(cpu)
        *  Thank you very much for using Q-Chem.  Have a nice day.  *

User input: 2 of 9

/Users/Deb/Programs/trunk/build/qcprog.exe .fch3cl-_ts_fine.inp.30421.qcin.2 /tmp/qchem30421/

                  Welcome to Q-Chem
     A Quantum Leap Into The Future Of Chemistry

 Y. Shao, L. Fusti-Molnar, Y. Jung, J. Kussmann, C. Ochsenfeld, S. T. Brown,
 A. T. B. Gilbert, L. V. Slipchenko, S. V. Levchenko, D. P. O'Neill,
 R. A. DiStasio Jr., R. C. Lochan, T. Wang, G. J. O. Beran, N. A. Besley,
 J. M. Herbert, C. Y. Lin, T. Van Voorhis, S. H. Chien, A. Sodt, R. P. Steele,
 V. A. Rassolov, P. E. Maslen, P. P. Korambath, R. D. Adamson, B. Austin,
 J. Baker, E. F. C. Byrd, H. Dachsel, R. J. Doerksen, A. Dreuw, B. D. Dunietz,
 A. D. Dutoi, T. R. Furlani, S. R. Gwaltney, A. Heyden, S. Hirata, C.-P. Hsu,
 G. Kedziora, R. Z. Khaliullin, P. Klunzinger, A. M. Lee, M. S. Lee, W. Liang,
 I. Lotan, N. Nair, B. Peters, E. I. Proynov, P. A. Pieniazek, Y. M. Rhee,
 J. Ritchie, E. Rosta, C. D. Sherrill, A. C. Simmonett, J. E. Subotnik,
 H. L. Woodcock III, W. Zhang, A. T. Bell, A. K. Chakraborty, D. M. Chipman,
 F. J. Keil, A. Warshel, W. J. Hehre, H. F. Schaefer III, J. Kong,
 A. I. Krylov, P. M. W. Gill, M. Head-Gordon

 Additional authors for Version 3.1:
 Z. Gan, Y. Zhao, N. E. Schultz, D. Truhlar, E. Epifanovsky, M. Oana

 Additional authors for Version 3.2:
 R. Baer, B. R. Brooks, D. Casanova, J.-D. Chai, C.-L. Cheng, C. Cramer,
 D. Crittenden, A. Ghysels, G. Hawkins, E. G. Hohenstein, C. Kelley,
 W. Kurlancheek, D. Liotard, E. Livshits, P. Manohar, A. Marenich,
 D. Neuhauser, R. Olson, M. A. Rohrdanz, K. S. Thanthiriwatte, A. J. W. Thom,
 V. Vanovschi, C. F. Williams, Q. Wu, Z.-Q. You

 Additional authors for Version 4.0:
 A. Aspuru-Guzik, Y. Bernard, C. Chang, J. Deng, A. Dreuw, M. Diedenhofen,
 R. G. Edgar, D. Ghosh, W. A. Goddard III, M. Goldey, L. D. Jacobson,
 M. Gordon, B. Kaduk, I. Kaliman, K. Khistyaev, R. King, A. Klamt,
 D. Kosenkov, T. Kus, D. Lambrecht, A. Landau, A. W. Lange, K. Lawler, F. Liu,
 J. Liu, R. Olivares-Amaya, S. P. Mao, J. Parkhill, N. Russ, M. Schmidt,
 N. Shenvi, D. Small, Y. C. Su, E. Sundstrom, L. Vogt, O. Vydrov, M. Watson,
 M. Wormit, X. Xu, S. Yeganeh, I. Y. Zhang, D. Zuev

 Additional authors for Version 4.1:
 X. Feng, M. W. D. Hanson-Heine, P. Horn, H. Ji, A. Laurent, R. Peverati,
 N. Mardirossian, N. Sergueev, S. Sharada, P. Zimmerman

 Q-Chem, Version 4.1, Q-Chem, Inc., Pittsburgh, PA (2013).

 Parts of Q-Chem use Armadillo 4.100.2 (Dirt Cruiser).
 http://arma.sourceforge.net/

 MAC (Intel) OSX Version 4.1.2

 Q-chem begins on Wed May  7 14:07:32 2014

Deborahs-MacBook-Air.local
Host: 0

     Scratch files written to /tmp/qchem30421//
 Apr1114 |Users|Deb|Programs|trunk|libmdc|qstr_info.C -1
Finally everything over in PARseQInput

--------------------------------------------------------------
User input:
--------------------------------------------------------------
$molecule
-1 1
F 0.000000 0.000000 -2.537929
C 0.000000 0.000000 -0.488372
H 1.062087 0.000000 -0.614972
H -0.531044 0.919794 -0.614972
H -0.531044 -0.919794 -0.614972
Cl 0.000000 0.000000 1.624501
$end

$rem
JOBTYPE OPT
EXCHANGE HF
CORRELATION MP2
BASIS 6-311G**
SCF_GUESS READ
$end

$opt
CONSTRAINT
stre 1 2 2.07
ENDCONSTRAINT
$end
--------------------------------------------------------------

    9    -598.5735958834      7.48E-09 Convergence criterion met
 Total energy in the final basis set = -598.5735958834
 Total energy in the final basis set = -598.5712044265
        MP2         total energy =      -599.1663922625 au
   10    -598.5705732151      8.65E-09 Convergence criterion met
 Total energy in the final basis set = -598.5705732151
        MP2         total energy =      -599.1667759945 au
   10    -598.5704646827      4.33E-09 Convergence criterion met
 Total energy in the final basis set = -598.5704646827
        MP2         total energy =      -599.1670623369 au
    9    -598.5706088319      9.55E-09 Convergence criterion met
 Total energy in the final basis set = -598.5706088319
        MP2         total energy =      -599.1671137255 au

             Standard Nuclear Orientation (Angstroms)
    I     Atom           X                Y                Z
 ----------------------------------------------------------------
    1      F       0.0000000000     0.0000000000     2.5285452668
    2      C       0.0000000000     0.0000000000     0.3885455914
    3      H       1.0452166381     0.0000000000     0.6353632731
    4      H      -0.5226083190    -0.9051841610     0.6353632731
    5      H      -0.5226083190     0.9051841610     0.6353632731
    6      Cl      0.0000000000     0.0000000000    -1.5764633248
 ----------------------------------------------------------------

    8    -598.5705741654      4.40E-09 Convergence criterion met
 Total energy in the final basis set = -598.5705741654
        MP2         total energy =      -599.1671147062 au
 Final energy is   -599.16711470621806
 **  OPTIMIZATION CONVERGED  **

             Orbital Energies (a.u.) and Symmetries
 --------------------------------------------------------------

 Alpha MOs, Restricted
 -- Occupied --
-104.63  -25.83  -11.12  -10.35   -7.82   -7.82   -7.82   -1.11
  1 A1    2 A1    3 A1    4 A1    5 A1    1 E     1 E     6 A1
 -0.909  -0.733  -0.433  -0.433  -0.331  -0.262  -0.262  -0.209
  7 A1    8 A1    2 E     2 E     9 A1    3 E     3 E     4 E
 -0.209  -0.190
  4 E    10 A1

 Beta MOs, Restricted
 -- Occupied --
-104.63  -25.83  -11.12  -10.35   -7.82   -7.82   -7.82   -1.11
  1 A1    2 A1    3 A1    4 A1    5 A1    1 E     1 E     6 A1
 -0.909  -0.733  -0.433  -0.433  -0.331  -0.262  -0.262  -0.209
  7 A1    8 A1    2 E     2 E     9 A1    3 E     3 E     4 E
 -0.209  -0.190
  4 E    10 A1

          Ground-State Mulliken Net Atomic Charges

     Atom                 Charge (a.u.)
  ----------------------------------------
      1 F                    -0.780718
      2 C                    -0.185504
      3 H                     0.136349
      4 H                     0.136349
      5 H                     0.136349
      6 Cl                   -0.442827
  ----------------------------------------
  Sum of atomic charges =    -1.000000

                    Cartesian Multipole Moments
 -----------------------------------------------------------------
    Charge (ESU x 10^10)
                -4.8032
    Dipole Moment (Debye)
         X       0.0000      Y       0.0000      Z      -4.8458
       Tot       4.8458
    Quadrupole Moments (Debye-Ang)
        XX     -27.3292     XY       0.0000     YY     -27.3292
        XZ       0.0000     YZ      -0.0000     ZZ     -58.4120

 Total job time:  68.41s(wall), 68.19s(cpu)
        *  Thank you very much for using Q-Chem.  Have a nice day.  *
