User input:
--------------------------------------------------------------
$molecule
0 1
F 0.000000 0.000000 -2.537929
C 0.000000 0.000000 -0.488372
H 1.062087 0.000000 -0.614972
H -0.531044 0.919794 -0.614972
H -0.531044 -0.919794 -0.614972
$end

$rem
JOBTYPE OPT
EXCHANGE HF
CORRELATION MP2
BASIS 6-311G**
$end
--------------------------------------------------------------

   12    -138.9525492428      7.90E-09 Convergence criterion met
 Total energy in the final basis set = -138.9525492428
        MP2         total energy =      -139.3589327162 au
   10    -138.9702432816      7.24E-09 Convergence criterion met
 Total energy in the final basis set = -138.9702432816
        MP2         total energy =      -139.3759168026 au
   10    -138.9880143060      6.69E-09 Convergence criterion met
 Total energy in the final basis set = -138.9880143060
        MP2         total energy =      -139.3930831422 au
   10    -139.0059986243      5.99E-09 Convergence criterion met
 Total energy in the final basis set = -139.0059986243
        MP2         total energy =      -139.4103455787 au
   10    -139.0240401016      5.32E-09 Convergence criterion met
 Total energy in the final basis set = -139.0240401016
        MP2         total energy =      -139.4273711297 au
 **  OPTIMIZATION CONVERGED  **
 Total job time:  27.19s(wall), 27.34s(cpu)
        *  Thank you very much for using Q-Chem.  Have a nice day.  *

User input: 2 of 2

                  Welcome to Q-Chem
     A Quantum Leap Into The Future Of Chemistry

 Y. Shao, L. Fusti-Molnar, Y. Jung, J. Kussmann, C. Ochsenfeld, S. T. Brown,
 A. T. B. Gilbert, L. V. Slipchenko, S. V. Levchenko, D. P. O'Neill,
 R. A. DiStasio Jr., R. C. Lochan, T. Wang, G. J. O. Beran, N. A. Besley,
 J. M. Herbert, C. Y. Lin, T. Van Voorhis, S. H. Chien, A. Sodt, R. P. Steele,
 V. A. Rassolov, P. E. Maslen, P. P. Korambath, R. D. Adamson, B. Austin,
 J. Baker, E. F. C. Byrd, H. Dachsel, R. J. Doerksen, A. Dreuw, B. D. Dunietz,
 A. D. Dutoi, T. R. Furlani, S. R. Gwaltney, A. Heyden, S. Hirata, C.-P. Hsu,
 G. Kedziora, R. Z. Khaliullin, P. Klunzinger, A. M. Lee, M. S. Lee, W. Liang,
 I. Lotan, N. Nair, B. Peters, E. I. Proynov, P. A. Pieniazek, Y. M. Rhee,
 J. Ritchie, E. Rosta, C. D. Sherrill, A. C. Simmonett, J. E. Subotnik,
 H. L. Woodcock III, W. Zhang, A. T. Bell, A. K. Chakraborty, D. M. Chipman,
 F. J. Keil, A. Warshel, W. J. Hehre, H. F. Schaefer III, J. Kong,
 A. I. Krylov, P. M. W. Gill, M. Head-Gordon

 Additional authors for Version 3.1:
 Z. Gan, Y. Zhao, N. E. Schultz, D. Truhlar, E. Epifanovsky, M. Oana

 Additional authors for Version 3.2:
 R. Baer, B. R. Brooks, D. Casanova, J.-D. Chai, C.-L. Cheng, C. Cramer,
 D. Crittenden, A. Ghysels, G. Hawkins, E. G. Hohenstein, C. Kelley,
 W. Kurlancheek, D. Liotard, E. Livshits, P. Manohar, A. Marenich,
 D. Neuhauser, R. Olson, M. A. Rohrdanz, K. S. Thanthiriwatte, A. J. W. Thom,
 V. Vanovschi, C. F. Williams, Q. Wu, Z.-Q. You

 Additional authors for Version 4.0:
 A. Aspuru-Guzik, Y. Bernard, C. Chang, J. Deng, A. Dreuw, M. Diedenhofen,
 R. G. Edgar, D. Ghosh, W. A. Goddard III, M. Goldey, L. D. Jacobson,
 M. Gordon, B. Kaduk, I. Kaliman, K. Khistyaev, R. King, A. Klamt,
 D. Kosenkov, T. Kus, D. Lambrecht, A. Landau, A. W. Lange, K. Lawler, F. Liu,
 J. Liu, R. Olivares-Amaya, S. P. Mao, J. Parkhill, N. Russ, M. Schmidt,
 N. Shenvi, D. Small, Y. C. Su, E. Sundstrom, L. Vogt, O. Vydrov, M. Watson,
 M. Wormit, X. Xu, S. Yeganeh, I. Y. Zhang, D. Zuev

 Additional authors for Version 4.1:
 X. Feng, M. W. D. Hanson-Heine, P. Horn, H. Ji, A. Laurent, R. Peverati,
 N. Mardirossian, N. Sergueev, S. Sharada, P. Zimmerman

 Q-Chem, Version 4.1, Q-Chem, Inc., Pittsburgh, PA (2013).

 Parts of Q-Chem use Armadillo 4.100.2 (Dirt Cruiser).
 http://arma.sourceforge.net/

 MAC (Intel) OSX Version 4.1.2

 Q-chem begins on Wed May  7 14:18:10 2014

Deborahs-MacBook-Air.local
Host: 0

     Scratch files written to /tmp/qchem30772//
 Apr1114 |Users|Deb|Programs|trunk|libmdc|qstr_info.C -1

 Q-Chem warning in module /Users/Deb/Programs/trunk/libgen/rem.C, line 2629:

 !!Desired Analytical derivatives not available.

 2-order derivative to be evaluated numerically with 1-order analytical derivatives
Finally everything over in PARseQInput

--------------------------------------------------------------
User input:
--------------------------------------------------------------
$molecule
read
$end

$rem
JOBTYPE FREQ
EXCHANGE HF
CORRELATION MP2
BASIS 6-311G**
SCF_GUESS READ
$end
--------------------------------------------------------------

    8    -139.0777656619      7.73E-09 Convergence criterion met
 Total energy in the final basis set = -139.0777656619
        MP2         total energy =      -139.4755631841 au
    8    -139.0777869825      7.23E-09 Convergence criterion met
 Total energy in the final basis set = -139.0777869825
        MP2         total energy =      -139.4755632382 au
    8    -139.0777768053      3.86E-09 Convergence criterion met
 Total energy in the final basis set = -139.0777768053
        MP2         total energy =      -139.4755637036 au
    8    -139.0777839432      3.50E-09 Convergence criterion met
 Total energy in the final basis set = -139.0777839432
        MP2         total energy =      -139.4755636354 au
    8    -139.0777695135      5.65E-09 Convergence criterion met
 Total energy in the final basis set = -139.0777695135
        MP2         total energy =      -139.4755636127 au

                    Orbital Energies (a.u.)
 --------------------------------------------------------------

 Alpha MOs
 -- Occupied --
-26.264 -11.306  -1.580  -0.952  -0.690  -0.690  -0.670  -0.527
 -0.527

          Ground-State Mulliken Net Atomic Charges

     Atom                 Charge (a.u.)
  ----------------------------------------
      1 F                    -0.291314
      2 C                     0.027691
      3 H                     0.087830
      4 H                     0.087896
      5 H                     0.087896
  ----------------------------------------
  Sum of atomic charges =    -0.000000

                    Cartesian Multipole Moments
 -----------------------------------------------------------------
    Charge (ESU x 10^10)
                 0.0000
    Dipole Moment (Debye)
         X      -0.0001      Y      -0.0000      Z      -1.8659
       Tot       1.8659
    Quadrupole Moments (Debye-Ang)
        XX     -11.8507     XY       0.0000     YY     -11.8498
        XZ      -0.0006     YZ       0.0000     ZZ     -12.3688

             Standard Nuclear Orientation (Angstroms)
    I     Atom           X                Y                Z
 ----------------------------------------------------------------
    1      F      -0.0000000000     0.0000000000     0.7501872809
    2      C      -0.0000000000     0.0000000000    -0.6303812687
    3      H       1.0304999423     0.0000000000    -0.9897993053
    4      H      -0.5152499712    -0.8924391286    -0.9897993053
    5      H      -0.5152499712     0.8924391286    -0.9897993053
 ----------------------------------------------------------------

 Frequency:      1108.19                1225.17                1225.17
 Force Cnst:      5.3842                 1.1150                 1.1150
 Red. Mass:       7.4412                 1.2607                 1.2607
 IR Intens:        0.000                  0.000                  0.000
 Frequency:      1518.67                1518.67                1537.45
 Force Cnst:      1.4219                 1.4219                 1.6072
 Red. Mass:       1.0464                 1.0464                 1.1540
 IR Intens:        0.000                  0.000                  0.000
 Frequency:      3093.15                3191.88                3191.88
 Force Cnst:      5.7961                 6.6514                 6.6514
 Red. Mass:       1.0282                 1.1081                 1.1081
 IR Intens:        0.000                  0.000                  0.000

 STANDARD THERMODYNAMIC QUANTITIES FOR ANHARMONIC VIBRATION -- VPT2

   Zero point vibrational energy: ************ kcal/mol

   Vibrational Enthalpy:       Infinity kcal/mol
   Vibrational Entropy:             NaN  cal/mol.K

   Total Enthalpy:             Infinity kcal/mol
   Total Entropy:                   NaN  cal/mol.K

 Total job time:  31.10s(wall), 31.31s(cpu)
        *  Thank you very much for using Q-Chem.  Have a nice day.  *
