User input:
--------------------------------------------------------------
$molecule
-1 1
F 0.000000 0.000000 -2.537929
C 0.000000 0.000000 -0.488372
H 1.062087 0.000000 -0.614972
H -0.531044 0.919794 -0.614972
H -0.531044 -0.919794 -0.614972
Cl 0.000000 0.000000 1.624501
$end

$rem
JOBTYPE OPT
EXCHANGE HF
CORRELATION MP2
BASIS 6-311G**
$end

$opt
CONSTRAINT
stre 1 2 1.90
ENDCONSTRAINT
$end
--------------------------------------------------------------

   15    -598.5735958834      2.31E-09 Convergence criterion met
 Total energy in the final basis set = -598.5735958834
        MP2         total energy =      -599.1671557039 au
   11    -598.5732409761      4.76E-09 Convergence criterion met
 Total energy in the final basis set = -598.5732409761
        MP2         total energy =      -599.1694684188 au
   10    -598.5747186660      8.80E-09 Convergence criterion met
 Total energy in the final basis set = -598.5747186660
        MP2         total energy =      -599.1704040938 au
   12    -598.5817884313      4.74E-09 Convergence criterion met
 Total energy in the final basis set = -598.5817884313
        MP2         total energy =      -599.1740665847 au
   11    -598.5866733796      7.93E-09 Convergence criterion met
 Total energy in the final basis set = -598.5866733796
        MP2         total energy =      -599.1766187746 au
 **  OPTIMIZATION CONVERGED  **
 Total job time:  114.97s(wall), 114.54s(cpu)
        *  Thank you very much for using Q-Chem.  Have a nice day.  *

User input: 2 of 12

                  Welcome to Q-Chem
     A Quantum Leap Into The Future Of Chemistry

 Y. Shao, L. Fusti-Molnar, Y. Jung, J. Kussmann, C. Ochsenfeld, S. T. Brown,
 A. T. B. Gilbert, L. V. Slipchenko, S. V. Levchenko, D. P. O'Neill,
 R. A. DiStasio Jr., R. C. Lochan, T. Wang, G. J. O. Beran, N. A. Besley,
 J. M. Herbert, C. Y. Lin, T. Van Voorhis, S. H. Chien, A. Sodt, R. P. Steele,
 V. A. Rassolov, P. E. Maslen, P. P. Korambath, R. D. Adamson, B. Austin,
 J. Baker, E. F. C. Byrd, H. Dachsel, R. J. Doerksen, A. Dreuw, B. D. Dunietz,
 A. D. Dutoi, T. R. Furlani, S. R. Gwaltney, A. Heyden, S. Hirata, C.-P. Hsu,
 G. Kedziora, R. Z. Khaliullin, P. Klunzinger, A. M. Lee, M. S. Lee, W. Liang,
 I. Lotan, N. Nair, B. Peters, E. I. Proynov, P. A. Pieniazek, Y. M. Rhee,
 J. Ritchie, E. Rosta, C. D. Sherrill, A. C. Simmonett, J. E. Subotnik,
 H. L. Woodcock III, W. Zhang, A. T. Bell, A. K. Chakraborty, D. M. Chipman,
 F. J. Keil, A. Warshel, W. J. Hehre, H. F. Schaefer III, J. Kong,
 A. I. Krylov, P. M. W. Gill, M. Head-Gordon

 Additional authors for Version 3.1:
 Z. Gan, Y. Zhao, N. E. Schultz, D. Truhlar, E. Epifanovsky, M. Oana

 Additional authors for Version 3.2:
 R. Baer, B. R. Brooks, D. Casanova, J.-D. Chai, C.-L. Cheng, C. Cramer,
 D. Crittenden, A. Ghysels, G. Hawkins, E. G. Hohenstein, C. Kelley,
 W. Kurlancheek, D. Liotard, E. Livshits, P. Manohar, A. Marenich,
 D. Neuhauser, R. Olson, M. A. Rohrdanz, K. S. Thanthiriwatte, A. J. W. Thom,
 V. Vanovschi, C. F. Williams, Q. Wu, Z.-Q. You

 Additional authors for Version 4.0:
 A. Aspuru-Guzik, Y. Bernard, C. Chang, J. Deng, A. Dreuw, M. Diedenhofen,
 R. G. Edgar, D. Ghosh, W. A. Goddard III, M. Goldey, L. D. Jacobson,
 M. Gordon, B. Kaduk, I. Kaliman, K. Khistyaev, R. King, A. Klamt,
 D. Kosenkov, T. Kus, D. Lambrecht, A. Landau, A. W. Lange, K. Lawler, F. Liu,
 J. Liu, R. Olivares-Amaya, S. P. Mao, J. Parkhill, N. Russ, M. Schmidt,
 N. Shenvi, D. Small, Y. C. Su, E. Sundstrom, L. Vogt, O. Vydrov, M. Watson,
 M. Wormit, X. Xu, S. Yeganeh, I. Y. Zhang, D. Zuev

 Additional authors for Version 4.1:
 X. Feng, M. W. D. Hanson-Heine, P. Horn, H. Ji, A. Laurent, R. Peverati,
 N. Mardirossian, N. Sergueev, S. Sharada, P. Zimmerman

 Q-Chem, Version 4.1, Q-Chem, Inc., Pittsburgh, PA (2013).

 Parts of Q-Chem use Armadillo 4.100.2 (Dirt Cruiser).
 http://arma.sourceforge.net/

 MAC (Intel) OSX Version 4.1.2

 Q-chem begins on Wed May  7 13:26:05 2014

Deborahs-MacBook-Air.local
Host: 0

     Scratch files written to /tmp/qchem30043//
 Apr1114 |Users|Deb|Programs|trunk|libmdc|qstr_info.C -1
Finally everything over in PARseQInput

--------------------------------------------------------------
User input:
--------------------------------------------------------------
$molecule
-1 1
F 0.000000 0.000000 -2.537929
C 0.000000 0.000000 -0.488372
H 1.062087 0.000000 -0.614972
H -0.531044 0.919794 -0.614972
H -0.531044 -0.919794 -0.614972
Cl 0.000000 0.000000 1.624501
$end

$rem
JOBTYPE OPT
EXCHANGE HF
CORRELATION MP2
BASIS 6-311G**
SCF_GUESS READ
$end

$opt
CONSTRAINT
stre 1 2 1.95
ENDCONSTRAINT
$end
--------------------------------------------------------------

 Total energy in the final basis set = -598.5486036214
        MP2         total energy =      -599.1407773392 au
   10    -598.5484347435      2.42E-09 Convergence criterion met
 Total energy in the final basis set = -598.5484347435
        MP2         total energy =      -599.1409099173 au
    9    -598.5483390490      1.70E-09 Convergence criterion met
 Total energy in the final basis set = -598.5483390490
        MP2         total energy =      -599.1409308750 au
    8    -598.5483317562      4.20E-09 Convergence criterion met
 Total energy in the final basis set = -598.5483317562
        MP2         total energy =      -599.1409323099 au
 Final energy is   -599.14093230990727
 **  OPTIMIZATION CONVERGED  **
 Total job time:  182.16s(wall), 181.36s(cpu)
        *  Thank you very much for using Q-Chem.  Have a nice day.  *

             Standard Nuclear Orientation (Angstroms)
    I     Atom           X                Y                Z
 ----------------------------------------------------------------
    1      F      -0.0000000014     0.0000000024     2.5379292286
    2      C      -0.0000000010     0.0000000017     0.4883722286
    3      H       1.0620870322     0.0000000000     0.6149722223
    4      H      -0.5310435161    -0.9197943509     0.6149722223
    5      H      -0.5310435161     0.9197943509     0.6149722223
    6      Cl      0.0000000012     0.0000000021    -1.6245007714
 ----------------------------------------------------------------

   13    -598.5735958834      4.32E-09 Convergence criterion met
 Total energy in the final basis set = -598.5735958834
        MP2         total energy =      -599.1671557000 au

             Orbital Energies (a.u.) and Symmetries
 --------------------------------------------------------------

 Alpha MOs, Restricted
 -- Occupied --
-104.60  -25.86  -11.14  -10.33   -7.79   -7.79   -7.79   -1.14
  1 A1    2 A1    3 A1    4 A1    5 A1    1 E     1 E     6 A1
 -0.876  -0.745  -0.452  -0.452  -0.308  -0.250  -0.250  -0.236
  7 A1    8 A1    2 E     2 E     9 A1    3 E     3 E     4 E
 -0.236  -0.203
  4 E    10 A1

 Beta MOs, Restricted
 -- Occupied --
-104.60  -25.86  -11.14  -10.33   -7.79   -7.79   -7.79   -1.14
  1 A1    2 A1    3 A1    4 A1    5 A1    1 E     1 E     6 A1
 -0.876  -0.745  -0.452  -0.452  -0.308  -0.250  -0.250  -0.236
  7 A1    8 A1    2 E     2 E     9 A1    3 E     3 E     4 E
 -0.236  -0.203
  4 E    10 A1

          Ground-State Mulliken Net Atomic Charges

     Atom                 Charge (a.u.)
  ----------------------------------------
      1 F                    -0.724262
      2 C                    -0.125625
      3 H                     0.139079
      4 H                     0.139079
      5 H                     0.139079
      6 Cl                   -0.567350
  ----------------------------------------
  Sum of atomic charges =    -1.000000

                    Cartesian Multipole Moments
 -----------------------------------------------------------------
    Charge (ESU x 10^10)
                -4.8032
    Dipole Moment (Debye)
         X       0.0000      Y      -0.0000      Z      -2.9206
       Tot       2.9206
    Quadrupole Moments (Debye-Ang)
        XX     -27.4473     XY       0.0000     YY     -27.4473
        XZ       0.0000     YZ      -0.0000     ZZ     -58.7597
